<?xml version="1.0" encoding="UTF-8"?>

<!-- generated on Mon 31 May 2021 02:41:58 IST by Eclipse SUMO GUI Version 1.4.0
<configuration xmlns:xsi="http://www.w3.org/2001/XMLSchema-instance" xsi:noNamespaceSchemaLocation="http://sumo.dlr.de/xsd/sumoConfiguration.xsd">

    <input>
        <net-file value="new_demo.net.xml"/>
        <route-files value="trips.trips.xml"/>
    </input>

    <output>
        <tripinfo-output value="tripinfo.xml"/>
    </output>

    <time>
        <begin value="0"/>
        <end value="530"/>
        <step-length value="0.4"/>
    </time>

    <traci_server>
        <remote-port value="47245"/>
    </traci_server>

    <gui_only>
        <tracker-interval value="0.4"/>
    </gui_only>

</configuration>
-->

<tripinfos xmlns:xsi="http://www.w3.org/2001/XMLSchema-instance" xsi:noNamespaceSchemaLocation="http://sumo.dlr.de/xsd/tripinfo_file.xsd">
    <tripinfo id="5" depart="4.80" departLane="-gneE49_0" departPos="6.60" departSpeed="0.00" departDelay="-0.20" arrival="21.20" arrivalLane="-gneE48_0" arrivalPos="85.60" arrivalSpeed="13.52" duration="16.40" routeLength="179.00" waitingTime="0.00" waitingCount="0" stopTime="0.00" timeLoss="3.49" rerouteNo="0" devices="tripinfo_5 routing_5" vType="bus" speedFactor="1.00" vaporized=""/>
    <tripinfo id="8" depart="8.00" departLane="-gneE26_0" departPos="6.60" departSpeed="0.00" departDelay="0.00" arrival="26.40" arrivalLane="gneE2_0" arrivalPos="85.60" arrivalSpeed="13.44" duration="18.40" routeLength="178.79" waitingTime="0.00" waitingCount="0" stopTime="0.00" timeLoss="4.59" rerouteNo="0" devices="tripinfo_8 routing_8" vType="bus" speedFactor="1.00" vaporized=""/>
    <tripinfo id="3" depart="2.80" departLane="gneE3_0" departPos="6.60" departSpeed="0.00" departDelay="-0.20" arrival="28.80" arrivalLane="gneE5_0" arrivalPos="85.60" arrivalSpeed="13.83" duration="26.00" routeLength="273.63" waitingTime="0.00" waitingCount="0" stopTime="0.00" timeLoss="5.30" rerouteNo="1" devices="tripinfo_3 routing_3" vType="bus" speedFactor="1.00" vaporized=""/>
    <tripinfo id="6" depart="6.00" departLane="gneE45_0" departPos="6.60" departSpeed="0.00" departDelay="0.00" arrival="41.60" arrivalLane="-gneE38_0" arrivalPos="89.60" arrivalSpeed="13.72" duration="35.60" routeLength="377.42" waitingTime="0.00" waitingCount="0" stopTime="0.00" timeLoss="6.85" rerouteNo="1" devices="tripinfo_6 routing_6" vType="bus" speedFactor="1.00" vaporized=""/>
    <tripinfo id="0" depart="0.00" departLane="-gneE33_0" departPos="6.60" departSpeed="0.00" departDelay="0.00" arrival="44.80" arrivalLane="-gneE42_0" arrivalPos="89.60" arrivalSpeed="13.76" duration="44.80" routeLength="477.21" waitingTime="0.00" waitingCount="0" stopTime="0.00" timeLoss="8.27" rerouteNo="1" devices="tripinfo_0 routing_0" vType="bus" speedFactor="1.00" vaporized=""/>
    <tripinfo id="7" depart="6.80" departLane="-gneE50_0" departPos="6.60" departSpeed="0.00" departDelay="-0.20" arrival="46.40" arrivalLane="-gneE14_0" arrivalPos="85.60" arrivalSpeed="13.59" duration="39.60" routeLength="373.42" waitingTime="0.00" waitingCount="0" stopTime="0.00" timeLoss="11.13" rerouteNo="1" devices="tripinfo_7 routing_7" vType="bus" speedFactor="1.00" vaporized=""/>
    <tripinfo id="2" depart="2.00" departLane="gneE32_0" departPos="6.60" departSpeed="0.00" departDelay="0.00" arrival="48.80" arrivalLane="-gneE33_0" arrivalPos="85.60" arrivalSpeed="13.37" duration="46.80" routeLength="464.23" waitingTime="0.00" waitingCount="0" stopTime="0.00" timeLoss="10.73" rerouteNo="1" devices="tripinfo_2 routing_2" vType="bus" speedFactor="1.00" vaporized=""/>
    <tripinfo id="13" depart="12.80" departLane="gneE14_0" departPos="6.60" departSpeed="0.00" departDelay="-0.20" arrival="50.00" arrivalLane="-gneE46_0" arrivalPos="85.60" arrivalSpeed="7.29" duration="37.20" routeLength="378.79" waitingTime="0.00" waitingCount="0" stopTime="0.00" timeLoss="9.16" rerouteNo="1" devices="tripinfo_13 routing_13" vType="bus" speedFactor="1.00" vaporized=""/>
    <tripinfo id="9" depart="8.80" departLane="-gneE44_0" departPos="6.60" departSpeed="0.00" departDelay="-0.20" arrival="54.80" arrivalLane="gneE33_0" arrivalPos="85.60" arrivalSpeed="13.45" duration="46.00" routeLength="467.84" waitingTime="0.00" waitingCount="0" stopTime="0.00" timeLoss="9.16" rerouteNo="1" devices="tripinfo_9 routing_9" vType="bus" speedFactor="1.00" vaporized=""/>
    <tripinfo id="15" depart="14.80" departLane="-gneE14_0" departPos="6.60" departSpeed="0.00" departDelay="-0.20" arrival="58.80" arrivalLane="-gneE12_0" arrivalPos="85.60" arrivalSpeed="13.42" duration="44.00" routeLength="462.89" waitingTime="0.00" waitingCount="0" stopTime="0.00" timeLoss="8.64" rerouteNo="1" devices="tripinfo_15 routing_15" vType="bus" speedFactor="1.00" vaporized=""/>
    <tripinfo id="29" depart="28.80" departLane="gneE2_0" departPos="5.10" departSpeed="0.00" departDelay="-0.20" arrival="61.20" arrivalLane="-gneE6_0" arrivalPos="85.60" arrivalSpeed="15.47" duration="32.40" routeLength="374.92" waitingTime="0.00" waitingCount="0" stopTime="0.00" timeLoss="6.80" rerouteNo="1" devices="tripinfo_29 routing_29" vType="DEFAULT_VEHTYPE" speedFactor="1.12" vaporized=""/>
    <tripinfo id="53" depart="52.80" departLane="gneE41_0" departPos="5.10" departSpeed="0.00" departDelay="-0.20" arrival="62.00" arrivalLane="gneE41_0" arrivalPos="89.60" arrivalSpeed="15.96" duration="9.20" routeLength="84.50" waitingTime="0.00" waitingCount="0" stopTime="0.00" timeLoss="4.00" rerouteNo="1" devices="tripinfo_53 routing_53" vType="DEFAULT_VEHTYPE" speedFactor="1.18" vaporized=""/>
    <tripinfo id="10" depart="10.00" departLane="gneE31_0" departPos="6.60" departSpeed="0.00" departDelay="0.00" arrival="62.40" arrivalLane="gneE42_0" arrivalPos="89.60" arrivalSpeed="13.51" duration="52.40" routeLength="579.92" waitingTime="0.00" waitingCount="0" stopTime="0.00" timeLoss="8.48" rerouteNo="1" devices="tripinfo_10 routing_10" vType="bus" speedFactor="1.00" vaporized=""/>
    <tripinfo id="35" depart="36.80" departLane="gneE31_0" departPos="5.10" departSpeed="0.00" departDelay="1.80" arrival="66.80" arrivalLane="gneE15_0" arrivalPos="85.60" arrivalSpeed="16.01" duration="30.00" routeLength="275.13" waitingTime="0.00" waitingCount="0" stopTime="0.00" timeLoss="12.14" rerouteNo="1" devices="tripinfo_35 routing_35" vType="DEFAULT_VEHTYPE" speedFactor="1.16" vaporized=""/>
    <tripinfo id="1" depart="0.80" departLane="gneE51_0" departPos="6.60" departSpeed="0.00" departDelay="-0.20" arrival="68.80" arrivalLane="gneE35_0" arrivalPos="85.60" arrivalSpeed="13.66" duration="68.00" routeLength="757.52" waitingTime="0.00" waitingCount="0" stopTime="0.00" timeLoss="10.47" rerouteNo="1" devices="tripinfo_1 routing_1" vType="bus" speedFactor="1.00" vaporized=""/>
    <tripinfo id="43" depart="42.80" departLane="-gneE46_0" departPos="5.10" departSpeed="0.00" departDelay="-0.20" arrival="71.60" arrivalLane="gneE40_0" arrivalPos="85.60" arrivalSpeed="12.98" duration="28.80" routeLength="274.92" waitingTime="0.00" waitingCount="0" stopTime="0.00" timeLoss="6.36" rerouteNo="1" devices="tripinfo_43 routing_43" vType="DEFAULT_VEHTYPE" speedFactor="0.95" vaporized=""/>
    <tripinfo id="12" depart="14.00" departLane="-gneE3_0" departPos="6.60" departSpeed="0.00" departDelay="2.00" arrival="74.00" arrivalLane="-gneE41_0" arrivalPos="89.60" arrivalSpeed="13.54" duration="60.00" routeLength="664.44" waitingTime="0.00" waitingCount="0" stopTime="0.00" timeLoss="10.34" rerouteNo="1" devices="tripinfo_12 routing_12" vType="bus" speedFactor="1.00" vaporized=""/>
    <tripinfo id="14" depart="14.00" departLane="gneE26_0" departPos="6.60" departSpeed="0.00" departDelay="0.00" arrival="75.20" arrivalLane="-gneE4_0" arrivalPos="85.60" arrivalSpeed="13.65" duration="61.20" routeLength="567.84" waitingTime="0.00" waitingCount="0" stopTime="0.00" timeLoss="17.07" rerouteNo="1" devices="tripinfo_14 routing_14" vType="bus" speedFactor="1.00" vaporized=""/>
    <tripinfo id="34" depart="34.00" departLane="gneE43_0" departPos="5.10" departSpeed="0.00" departDelay="0.00" arrival="80.80" arrivalLane="gneE27_0" arrivalPos="89.60" arrivalSpeed="12.50" duration="46.80" routeLength="473.55" waitingTime="0.00" waitingCount="0" stopTime="0.00" timeLoss="7.61" rerouteNo="1" devices="tripinfo_34 routing_34" vType="DEFAULT_VEHTYPE" speedFactor="0.94" vaporized=""/>
    <tripinfo id="11" depart="13.60" departLane="-gneE31_0" departPos="6.60" departSpeed="0.00" departDelay="2.60" arrival="82.00" arrivalLane="gneE12_0" arrivalPos="85.60" arrivalSpeed="13.57" duration="68.40" routeLength="757.52" waitingTime="0.00" waitingCount="0" stopTime="0.00" timeLoss="10.71" rerouteNo="1" devices="tripinfo_11 routing_11" vType="bus" speedFactor="1.00" vaporized=""/>
    <tripinfo id="60" depart="60.00" departLane="gneE38_0" departPos="5.10" departSpeed="0.00" departDelay="0.00" arrival="83.60" arrivalLane="gneE40_0" arrivalPos="85.60" arrivalSpeed="14.32" duration="23.60" routeLength="284.50" waitingTime="0.00" waitingCount="0" stopTime="0.00" timeLoss="3.72" rerouteNo="1" devices="tripinfo_60 routing_60" vType="DEFAULT_VEHTYPE" speedFactor="1.04" vaporized=""/>
    <tripinfo id="25" depart="26.40" departLane="gneE52_0" departPos="5.10" departSpeed="0.00" departDelay="1.40" arrival="84.00" arrivalLane="-gneE37_0" arrivalPos="89.60" arrivalSpeed="11.84" duration="57.60" routeLength="571.31" waitingTime="0.00" waitingCount="0" stopTime="0.00" timeLoss="8.12" rerouteNo="1" devices="tripinfo_25 routing_25" vType="DEFAULT_VEHTYPE" speedFactor="0.86" vaporized=""/>
    <tripinfo id="58" depart="58.00" departLane="-gneE44_0" departPos="5.10" departSpeed="0.00" departDelay="0.00" arrival="89.60" arrivalLane="-gneE29_0" arrivalPos="85.60" arrivalSpeed="14.92" duration="31.60" routeLength="280.29" waitingTime="0.80" waitingCount="1" stopTime="0.00" timeLoss="12.32" rerouteNo="1" devices="tripinfo_58 routing_58" vType="DEFAULT_VEHTYPE" speedFactor="1.09" vaporized=""/>
    <tripinfo id="40" depart="43.20" departLane="-gneE33_0" departPos="5.10" departSpeed="0.00" departDelay="3.20" arrival="95.20" arrivalLane="gneE2_0" arrivalPos="85.60" arrivalSpeed="7.74" duration="52.00" routeLength="374.71" waitingTime="2.40" waitingCount="1" stopTime="0.00" timeLoss="16.65" rerouteNo="1" devices="tripinfo_40 routing_40" vType="DEFAULT_VEHTYPE" speedFactor="0.83" vaporized=""/>
    <tripinfo id="27" depart="26.80" departLane="-gneE37_0" departPos="5.10" departSpeed="0.00" departDelay="-0.20" arrival="95.60" arrivalLane="-gneE50_0" arrivalPos="85.60" arrivalSpeed="7.91" duration="68.80" routeLength="378.92" waitingTime="18.40" waitingCount="2" stopTime="0.00" timeLoss="40.50" rerouteNo="1" devices="tripinfo_27 routing_27" vType="DEFAULT_VEHTYPE" speedFactor="1.03" vaporized=""/>
    <tripinfo id="48" depart="52.00" departLane="gneE33_0" departPos="5.10" departSpeed="0.00" departDelay="4.00" arrival="97.60" arrivalLane="-gneE41_0" arrivalPos="89.60" arrivalSpeed="13.78" duration="45.60" routeLength="471.31" waitingTime="0.00" waitingCount="0" stopTime="0.00" timeLoss="10.51" rerouteNo="1" devices="tripinfo_48 routing_48" vType="DEFAULT_VEHTYPE" speedFactor="1.01" vaporized=""/>
    <tripinfo id="49" depart="48.80" departLane="gneE36_0" departPos="5.10" departSpeed="0.00" departDelay="-0.20" arrival="99.60" arrivalLane="-gneE50_0" arrivalPos="85.60" arrivalSpeed="7.05" duration="50.80" routeLength="380.08" waitingTime="7.20" waitingCount="1" stopTime="0.00" timeLoss="26.27" rerouteNo="1" devices="tripinfo_49 routing_49" vType="DEFAULT_VEHTYPE" speedFactor="1.17" vaporized=""/>
    <tripinfo id="28" depart="29.20" departLane="-gneE2_0" departPos="5.10" departSpeed="0.00" departDelay="1.20" arrival="100.80" arrivalLane="-gneE26_0" arrivalPos="85.60" arrivalSpeed="14.38" duration="71.60" routeLength="660.36" waitingTime="1.60" waitingCount="1" stopTime="0.00" timeLoss="23.08" rerouteNo="1" devices="tripinfo_28 routing_28" vType="DEFAULT_VEHTYPE" speedFactor="1.05" vaporized=""/>
    <tripinfo id="64" depart="64.00" departLane="-gneE31_0" departPos="5.10" departSpeed="0.00" departDelay="0.00" arrival="101.20" arrivalLane="-gneE44_0" arrivalPos="85.60" arrivalSpeed="11.74" duration="37.20" routeLength="274.92" waitingTime="4.40" waitingCount="1" stopTime="0.00" timeLoss="12.83" rerouteNo="1" devices="tripinfo_64 routing_64" vType="DEFAULT_VEHTYPE" speedFactor="0.88" vaporized=""/>
    <tripinfo id="44" depart="44.00" departLane="gneE26_0" departPos="5.10" departSpeed="0.00" departDelay="0.00" arrival="101.60" arrivalLane="-gneE32_0" arrivalPos="85.60" arrivalSpeed="15.36" duration="57.60" routeLength="269.76" waitingTime="24.40" waitingCount="1" stopTime="0.00" timeLoss="38.77" rerouteNo="1" devices="tripinfo_44 routing_44" vType="DEFAULT_VEHTYPE" speedFactor="1.13" vaporized=""/>
    <tripinfo id="22" depart="23.20" departLane="-gneE49_0" departPos="5.10" departSpeed="0.00" departDelay="1.20" arrival="102.00" arrivalLane="gneE4_0" arrivalPos="85.60" arrivalSpeed="14.51" duration="78.80" routeLength="374.71" waitingTime="29.20" waitingCount="1" stopTime="0.00" timeLoss="50.56" rerouteNo="1" devices="tripinfo_22 routing_22" vType="DEFAULT_VEHTYPE" speedFactor="1.05" vaporized=""/>
    <tripinfo id="4" depart="4.00" departLane="-gneE4_0" departPos="6.60" departSpeed="0.00" departDelay="0.00" arrival="109.20" arrivalLane="-gneE0_0" arrivalPos="89.60" arrivalSpeed="13.65" duration="105.20" routeLength="482.58" waitingTime="38.00" waitingCount="3" stopTime="0.00" timeLoss="68.88" rerouteNo="1" devices="tripinfo_4 routing_4" vType="bus" speedFactor="1.00" vaporized=""/>
    <tripinfo id="18" depart="18.00" departLane="-gneE35_0" departPos="5.10" departSpeed="0.00" departDelay="0.00" arrival="109.60" arrivalLane="-gneE45_0" arrivalPos="85.60" arrivalSpeed="13.56" duration="91.60" routeLength="479.87" waitingTime="40.00" waitingCount="2" stopTime="0.00" timeLoss="55.31" rerouteNo="1" devices="tripinfo_18 routing_18" vType="DEFAULT_VEHTYPE" speedFactor="1.01" vaporized=""/>
    <tripinfo id="46" depart="46.00" departLane="-gneE6_0" departPos="5.10" departSpeed="0.00" departDelay="0.00" arrival="110.00" arrivalLane="-gneE2_0" arrivalPos="85.60" arrivalSpeed="6.44" duration="64.00" routeLength="480.08" waitingTime="6.00" waitingCount="2" stopTime="0.00" timeLoss="33.19" rerouteNo="1" devices="tripinfo_46 routing_46" vType="DEFAULT_VEHTYPE" speedFactor="1.18" vaporized=""/>
    <tripinfo id="24" depart="24.00" departLane="-gneE2_0" departPos="5.10" departSpeed="0.00" departDelay="0.00" arrival="111.20" arrivalLane="-gneE9_0" arrivalPos="89.60" arrivalSpeed="12.98" duration="87.20" routeLength="381.63" waitingTime="42.80" waitingCount="2" stopTime="0.00" timeLoss="56.40" rerouteNo="1" devices="tripinfo_24 routing_24" vType="DEFAULT_VEHTYPE" speedFactor="0.94" vaporized=""/>
    <tripinfo id="47" depart="46.80" departLane="gneE1_0" departPos="5.10" departSpeed="0.00" departDelay="-0.20" arrival="111.20" arrivalLane="gneE50_0" arrivalPos="85.60" arrivalSpeed="9.64" duration="64.40" routeLength="375.13" waitingTime="21.60" waitingCount="1" stopTime="0.00" timeLoss="40.33" rerouteNo="1" devices="tripinfo_47 routing_47" vType="DEFAULT_VEHTYPE" speedFactor="1.15" vaporized=""/>
    <tripinfo id="38" depart="38.00" departLane="-gneE5_0" departPos="5.10" departSpeed="0.00" departDelay="0.00" arrival="117.20" arrivalLane="-gneE1_0" arrivalPos="85.60" arrivalSpeed="13.15" duration="79.20" routeLength="480.08" waitingTime="24.80" waitingCount="2" stopTime="0.00" timeLoss="42.29" rerouteNo="1" devices="tripinfo_38 routing_38" vType="DEFAULT_VEHTYPE" speedFactor="0.98" vaporized=""/>
    <tripinfo id="45" depart="49.20" departLane="gneE33_0" departPos="5.10" departSpeed="0.00" departDelay="4.20" arrival="118.80" arrivalLane="-gneE38_0" arrivalPos="89.60" arrivalSpeed="12.44" duration="69.60" routeLength="775.31" waitingTime="0.00" waitingCount="0" stopTime="0.00" timeLoss="8.66" rerouteNo="1" devices="tripinfo_45 routing_45" vType="DEFAULT_VEHTYPE" speedFactor="0.93" vaporized=""/>
    <tripinfo id="20" depart="20.00" departLane="gneE31_0" departPos="5.10" departSpeed="0.00" departDelay="0.00" arrival="122.00" arrivalLane="-gneE38_0" arrivalPos="89.60" arrivalSpeed="14.25" duration="102.00" routeLength="478.92" waitingTime="40.40" waitingCount="4" stopTime="0.00" timeLoss="67.21" rerouteNo="1" devices="tripinfo_20 routing_20" vType="DEFAULT_VEHTYPE" speedFactor="1.03" vaporized=""/>
    <tripinfo id="112" depart="112.00" departLane="-gneE42_0" departPos="5.10" departSpeed="0.00" departDelay="0.00" arrival="122.00" arrivalLane="-gneE42_0" arrivalPos="89.60" arrivalSpeed="11.23" duration="10.00" routeLength="84.50" waitingTime="0.00" waitingCount="0" stopTime="0.00" timeLoss="2.65" rerouteNo="1" devices="tripinfo_112 routing_112" vType="DEFAULT_VEHTYPE" speedFactor="0.83" vaporized=""/>
    <tripinfo id="76" depart="76.00" departLane="gneE26_0" departPos="5.10" departSpeed="0.00" departDelay="0.00" arrival="122.80" arrivalLane="-gneE29_0" arrivalPos="85.60" arrivalSpeed="14.56" duration="46.80" routeLength="474.71" waitingTime="0.00" waitingCount="0" stopTime="0.00" timeLoss="13.10" rerouteNo="1" devices="tripinfo_76 routing_76" vType="DEFAULT_VEHTYPE" speedFactor="1.08" vaporized=""/>
    <tripinfo id="39" depart="38.80" departLane="gneE9_0" departPos="5.10" departSpeed="0.00" departDelay="-0.20" arrival="124.40" arrivalLane="gneE13_0" arrivalPos="85.60" arrivalSpeed="12.02" duration="85.60" routeLength="465.94" waitingTime="28.00" waitingCount="1" stopTime="0.00" timeLoss="45.53" rerouteNo="1" devices="tripinfo_39 routing_39" vType="DEFAULT_VEHTYPE" speedFactor="0.89" vaporized=""/>
    <tripinfo id="107" depart="106.80" departLane="gneE5_0" departPos="5.10" departSpeed="0.00" departDelay="-0.20" arrival="124.80" arrivalLane="gneE6_0" arrivalPos="85.60" arrivalSpeed="14.30" duration="18.00" routeLength="175.13" waitingTime="0.00" waitingCount="0" stopTime="0.00" timeLoss="5.29" rerouteNo="0" devices="tripinfo_107 routing_107" vType="DEFAULT_VEHTYPE" speedFactor="1.04" vaporized=""/>
    <tripinfo id="72" depart="72.00" departLane="-gneE15_0" departPos="5.10" departSpeed="0.00" departDelay="0.00" arrival="127.20" arrivalLane="-gneE38_0" arrivalPos="89.60" arrivalSpeed="12.32" duration="55.20" routeLength="379.13" waitingTime="7.20" waitingCount="1" stopTime="0.00" timeLoss="23.81" rerouteNo="1" devices="tripinfo_72 routing_72" vType="DEFAULT_VEHTYPE" speedFactor="0.90" vaporized=""/>
    <tripinfo id="17" depart="16.80" departLane="-gneE46_0" departPos="5.10" departSpeed="0.00" departDelay="-0.20" arrival="129.20" arrivalLane="gneE27_0" arrivalPos="89.60" arrivalSpeed="12.69" duration="112.40" routeLength="578.92" waitingTime="49.60" waitingCount="2" stopTime="0.00" timeLoss="66.41" rerouteNo="1" devices="tripinfo_17 routing_17" vType="DEFAULT_VEHTYPE" speedFactor="0.94" vaporized=""/>
    <tripinfo id="116" depart="116.00" departLane="-gneE53_0" departPos="5.10" departSpeed="0.00" departDelay="0.00" arrival="134.40" arrivalLane="-gneE44_0" arrivalPos="85.60" arrivalSpeed="13.67" duration="18.40" routeLength="175.13" waitingTime="0.00" waitingCount="0" stopTime="0.00" timeLoss="5.22" rerouteNo="0" devices="tripinfo_116 routing_116" vType="DEFAULT_VEHTYPE" speedFactor="1.01" vaporized=""/>
    <tripinfo id="65" depart="64.80" departLane="-gneE36_0" departPos="5.10" departSpeed="0.00" departDelay="-0.20" arrival="135.60" arrivalLane="-gneE51_0" arrivalPos="85.60" arrivalSpeed="11.59" duration="70.80" routeLength="569.34" waitingTime="0.00" waitingCount="0" stopTime="0.00" timeLoss="19.25" rerouteNo="1" devices="tripinfo_65 routing_65" vType="DEFAULT_VEHTYPE" speedFactor="0.85" vaporized=""/>
    <tripinfo id="68" depart="68.00" departLane="gneE26_0" departPos="5.10" departSpeed="0.00" departDelay="0.00" arrival="137.20" arrivalLane="gneE42_0" arrivalPos="89.60" arrivalSpeed="14.07" duration="69.20" routeLength="676.26" waitingTime="1.20" waitingCount="1" stopTime="0.00" timeLoss="19.21" rerouteNo="1" devices="tripinfo_68 routing_68" vType="DEFAULT_VEHTYPE" speedFactor="1.02" vaporized=""/>
    <tripinfo id="101" depart="102.40" departLane="gneE33_0" departPos="5.10" departSpeed="0.00" departDelay="1.40" arrival="137.60" arrivalLane="-gneE28_0" arrivalPos="89.60" arrivalSpeed="13.63" duration="35.20" routeLength="184.29" waitingTime="13.20" waitingCount="1" stopTime="0.00" timeLoss="21.06" rerouteNo="0" devices="tripinfo_101 routing_101" vType="DEFAULT_VEHTYPE" speedFactor="1.00" vaporized=""/>
    <tripinfo id="21" depart="24.40" departLane="gneE27_0" departPos="5.10" departSpeed="0.00" departDelay="3.40" arrival="138.00" arrivalLane="-gneE5_0" arrivalPos="85.60" arrivalSpeed="5.84" duration="113.60" routeLength="770.89" waitingTime="27.60" waitingCount="1" stopTime="0.00" timeLoss="43.76" rerouteNo="1" devices="tripinfo_21 routing_21" vType="DEFAULT_VEHTYPE" speedFactor="0.83" vaporized=""/>
    <tripinfo id="79" depart="78.80" departLane="-gneE28_0" departPos="5.10" departSpeed="0.00" departDelay="-0.20" arrival="138.00" arrivalLane="-gneE13_0" arrivalPos="85.60" arrivalSpeed="5.64" duration="59.20" routeLength="581.42" waitingTime="0.00" waitingCount="0" stopTime="0.00" timeLoss="14.83" rerouteNo="1" devices="tripinfo_79 routing_79" vType="DEFAULT_VEHTYPE" speedFactor="0.99" vaporized=""/>
    <tripinfo id="33" depart="32.80" departLane="-gneE49_0" departPos="5.10" departSpeed="0.00" departDelay="-0.20" arrival="138.40" arrivalLane="-gneE14_0" arrivalPos="85.60" arrivalSpeed="5.69" duration="105.60" routeLength="380.50" waitingTime="60.80" waitingCount="2" stopTime="0.00" timeLoss="76.35" rerouteNo="1" devices="tripinfo_33 routing_33" vType="DEFAULT_VEHTYPE" speedFactor="0.94" vaporized=""/>
    <tripinfo id="69" depart="68.80" departLane="-gneE13_0" departPos="5.10" departSpeed="0.00" departDelay="-0.20" arrival="138.40" arrivalLane="-gneE33_0" arrivalPos="85.60" arrivalSpeed="6.31" duration="69.60" routeLength="565.73" waitingTime="9.20" waitingCount="1" stopTime="0.00" timeLoss="30.02" rerouteNo="1" devices="tripinfo_69 routing_69" vType="DEFAULT_VEHTYPE" speedFactor="1.10" vaporized=""/>
    <tripinfo id="103" depart="102.80" departLane="-gneE41_0" departPos="5.10" departSpeed="0.00" departDelay="-0.20" arrival="138.80" arrivalLane="-gneE30_0" arrivalPos="85.60" arrivalSpeed="12.96" duration="36.00" routeLength="373.76" waitingTime="0.00" waitingCount="0" stopTime="0.00" timeLoss="6.60" rerouteNo="1" devices="tripinfo_103 routing_103" vType="DEFAULT_VEHTYPE" speedFactor="0.97" vaporized=""/>
    <tripinfo id="36" depart="36.00" departLane="gneE0_0" departPos="5.10" departSpeed="0.00" departDelay="0.00" arrival="139.60" arrivalLane="-gneE43_0" arrivalPos="85.60" arrivalSpeed="13.63" duration="103.60" routeLength="680.68" waitingTime="43.20" waitingCount="1" stopTime="0.00" timeLoss="55.19" rerouteNo="1" devices="tripinfo_36 routing_36" vType="DEFAULT_VEHTYPE" speedFactor="1.02" vaporized=""/>
    <tripinfo id="80" depart="80.00" departLane="-gneE41_0" departPos="5.10" departSpeed="0.00" departDelay="0.00" arrival="140.00" arrivalLane="-gneE46_0" arrivalPos="85.60" arrivalSpeed="7.86" duration="60.00" routeLength="473.76" waitingTime="8.00" waitingCount="1" stopTime="0.00" timeLoss="22.34" rerouteNo="1" devices="tripinfo_80 routing_80" vType="DEFAULT_VEHTYPE" speedFactor="0.94" vaporized=""/>
    <tripinfo id="63" depart="62.80" departLane="-gneE45_0" departPos="5.10" departSpeed="0.00" departDelay="-0.20" arrival="140.80" arrivalLane="gneE14_0" arrivalPos="85.60" arrivalSpeed="12.00" duration="78.00" routeLength="679.87" waitingTime="4.40" waitingCount="1" stopTime="0.00" timeLoss="20.95" rerouteNo="1" devices="tripinfo_63 routing_63" vType="DEFAULT_VEHTYPE" speedFactor="0.90" vaporized=""/>
    <tripinfo id="31" depart="30.80" departLane="-gneE42_0" departPos="5.10" departSpeed="0.00" departDelay="-0.20" arrival="145.60" arrivalLane="gneE46_0" arrivalPos="85.60" arrivalSpeed="12.62" duration="114.80" routeLength="471.10" waitingTime="59.60" waitingCount="2" stopTime="0.00" timeLoss="75.98" rerouteNo="1" devices="tripinfo_31 routing_31" vType="DEFAULT_VEHTYPE" speedFactor="0.93" vaporized=""/>
    <tripinfo id="19" depart="18.80" departLane="-gneE28_0" departPos="5.10" departSpeed="0.00" departDelay="-0.20" arrival="146.80" arrivalLane="gneE49_0" arrivalPos="85.60" arrivalSpeed="5.14" duration="128.00" routeLength="781.63" waitingTime="42.00" waitingCount="3" stopTime="0.00" timeLoss="74.70" rerouteNo="1" devices="tripinfo_19 routing_19" vType="DEFAULT_VEHTYPE" speedFactor="1.08" vaporized=""/>
    <tripinfo id="54" depart="54.00" departLane="-gneE30_0" departPos="5.10" departSpeed="0.00" departDelay="0.00" arrival="146.80" arrivalLane="gneE30_0" arrivalPos="85.60" arrivalSpeed="14.97" duration="92.80" routeLength="748.28" waitingTime="8.80" waitingCount="1" stopTime="0.00" timeLoss="39.98" rerouteNo="1" devices="tripinfo_54 routing_54" vType="DEFAULT_VEHTYPE" speedFactor="1.10" vaporized=""/>
    <tripinfo id="93" depart="92.80" departLane="gneE37_0" departPos="6.60" departSpeed="0.00" departDelay="-0.20" arrival="146.80" arrivalLane="gneE36_0" arrivalPos="85.60" arrivalSpeed="13.82" duration="54.00" routeLength="579.71" waitingTime="0.00" waitingCount="0" stopTime="0.00" timeLoss="9.31" rerouteNo="1" devices="tripinfo_93 routing_93" vType="bus" speedFactor="1.00" vaporized=""/>
    <tripinfo id="111" depart="110.80" departLane="-gneE50_0" departPos="5.10" departSpeed="0.00" departDelay="-0.20" arrival="147.20" arrivalLane="gneE5_0" arrivalPos="85.60" arrivalSpeed="11.92" duration="36.40" routeLength="280.29" waitingTime="1.20" waitingCount="1" stopTime="0.00" timeLoss="12.89" rerouteNo="1" devices="tripinfo_111 routing_111" vType="DEFAULT_VEHTYPE" speedFactor="0.89" vaporized=""/>
    <tripinfo id="16" depart="16.00" departLane="-gneE47_0" departPos="5.10" departSpeed="0.00" departDelay="0.00" arrival="148.80" arrivalLane="-gneE0_0" arrivalPos="89.60" arrivalSpeed="14.43" duration="132.80" routeLength="484.08" waitingTime="66.80" waitingCount="4" stopTime="0.00" timeLoss="98.54" rerouteNo="1" devices="tripinfo_16 routing_16" vType="DEFAULT_VEHTYPE" speedFactor="1.06" vaporized=""/>
    <tripinfo id="23" depart="22.80" departLane="gneE35_0" departPos="5.10" departSpeed="0.00" departDelay="-0.20" arrival="149.20" arrivalLane="-gneE34_0" arrivalPos="85.60" arrivalSpeed="12.14" duration="126.40" routeLength="464.18" waitingTime="63.60" waitingCount="3" stopTime="0.00" timeLoss="85.23" rerouteNo="1" devices="tripinfo_23 routing_23" vType="DEFAULT_VEHTYPE" speedFactor="0.89" vaporized=""/>
    <tripinfo id="41" depart="40.80" departLane="gneE48_0" departPos="5.10" departSpeed="0.00" departDelay="-0.20" arrival="150.00" arrivalLane="-gneE45_0" arrivalPos="85.60" arrivalSpeed="10.61" duration="109.20" routeLength="280.29" waitingTime="66.00" waitingCount="3" stopTime="0.00" timeLoss="84.95" rerouteNo="1" devices="tripinfo_41 routing_41" vType="DEFAULT_VEHTYPE" speedFactor="0.87" vaporized=""/>
    <tripinfo id="78" depart="78.00" departLane="gneE4_0" departPos="5.10" departSpeed="0.00" departDelay="0.00" arrival="154.00" arrivalLane="gneE2_0" arrivalPos="85.60" arrivalSpeed="14.08" duration="76.00" routeLength="464.39" waitingTime="29.60" waitingCount="1" stopTime="0.00" timeLoss="40.54" rerouteNo="1" devices="tripinfo_78 routing_78" vType="DEFAULT_VEHTYPE" speedFactor="1.02" vaporized=""/>
    <tripinfo id="30" depart="30.00" departLane="gneE9_0" departPos="5.10" departSpeed="0.00" departDelay="0.00" arrival="156.40" arrivalLane="-gneE4_0" arrivalPos="85.60" arrivalSpeed="9.15" duration="126.40" routeLength="471.10" waitingTime="55.60" waitingCount="3" stopTime="0.00" timeLoss="90.26" rerouteNo="1" devices="tripinfo_30 routing_30" vType="DEFAULT_VEHTYPE" speedFactor="0.99" vaporized=""/>
    <tripinfo id="81" depart="80.80" departLane="-gneE30_0" departPos="5.10" departSpeed="0.00" departDelay="-0.20" arrival="156.80" arrivalLane="-gneE2_0" arrivalPos="85.60" arrivalSpeed="12.10" duration="76.00" routeLength="474.71" waitingTime="22.40" waitingCount="1" stopTime="0.00" timeLoss="34.60" rerouteNo="1" devices="tripinfo_81 routing_81" vType="DEFAULT_VEHTYPE" speedFactor="0.88" vaporized=""/>
    <tripinfo id="109" depart="108.80" departLane="gneE3_0" departPos="5.10" departSpeed="0.00" departDelay="-0.20" arrival="156.80" arrivalLane="-gneE29_0" arrivalPos="85.60" arrivalSpeed="14.03" duration="48.00" routeLength="380.08" waitingTime="4.00" waitingCount="1" stopTime="0.00" timeLoss="19.88" rerouteNo="1" devices="tripinfo_109 routing_109" vType="DEFAULT_VEHTYPE" speedFactor="1.02" vaporized=""/>
    <tripinfo id="122" depart="122.00" departLane="-gneE36_0" departPos="5.10" departSpeed="0.00" departDelay="0.00" arrival="156.80" arrivalLane="-gneE13_0" arrivalPos="85.60" arrivalSpeed="13.33" duration="34.80" routeLength="375.13" waitingTime="0.00" waitingCount="0" stopTime="0.00" timeLoss="5.93" rerouteNo="1" devices="tripinfo_122 routing_122" vType="DEFAULT_VEHTYPE" speedFactor="0.97" vaporized=""/>
    <tripinfo id="56" depart="56.00" departLane="-gneE52_0" departPos="5.10" departSpeed="0.00" departDelay="0.00" arrival="158.80" arrivalLane="-gneE14_0" arrivalPos="85.60" arrivalSpeed="14.23" duration="102.80" routeLength="474.92" waitingTime="43.20" waitingCount="3" stopTime="0.00" timeLoss="68.03" rerouteNo="1" devices="tripinfo_56 routing_56" vType="DEFAULT_VEHTYPE" speedFactor="1.03" vaporized=""/>
    <tripinfo id="114" depart="114.00" departLane="gneE42_0" departPos="5.10" departSpeed="0.00" departDelay="0.00" arrival="160.00" arrivalLane="-gneE26_0" arrivalPos="85.60" arrivalSpeed="14.95" duration="46.00" routeLength="585.84" waitingTime="0.00" waitingCount="0" stopTime="0.00" timeLoss="6.66" rerouteNo="1" devices="tripinfo_114 routing_114" vType="DEFAULT_VEHTYPE" speedFactor="1.09" vaporized=""/>