<?xml version="1.0" encoding="UTF-8"?>

<!-- generated on Fri 28 May 2021 19:10:22 IST by Eclipse SUMO GUI Version 1.4.0
<configuration xmlns:xsi="http://www.w3.org/2001/XMLSchema-instance" xsi:noNamespaceSchemaLocation="http://sumo.dlr.de/xsd/sumoConfiguration.xsd">

    <input>
        <net-file value="new_demo.net.xml"/>
        <route-files value="trips.trips.xml"/>
    </input>

    <output>
        <tripinfo-output value="tripinfo.xml"/>
    </output>

    <time>
        <begin value="0"/>
        <end value="530"/>
        <step-length value="0.4"/>
    </time>

    <traci_server>
        <remote-port value="51301"/>
    </traci_server>

    <gui_only>
        <tracker-interval value="0.4"/>
    </gui_only>

</configuration>
-->

<tripinfos xmlns:xsi="http://www.w3.org/2001/XMLSchema-instance" xsi:noNamespaceSchemaLocation="http://sumo.dlr.de/xsd/tripinfo_file.xsd">
    <tripinfo id="3" depart="2.80" departLane="-gneE2_0" departPos="5.10" departSpeed="0.00" departDelay="-0.20" arrival="49.20" arrivalLane="-gneE28_0" arrivalPos="89.60" arrivalSpeed="14.91" duration="46.40" routeLength="473.34" waitingTime="0.00" waitingCount="0" stopTime="0.00" timeLoss="12.27" rerouteNo="1" devices="tripinfo_3 routing_3" vType="DEFAULT_VEHTYPE" speedFactor="1.08" vaporized=""/>
    <tripinfo id="32" depart="33.20" departLane="gneE12_0" departPos="5.10" departSpeed="0.00" departDelay="1.20" arrival="59.60" arrivalLane="-gneE14_0" arrivalPos="85.60" arrivalSpeed="12.56" duration="26.40" routeLength="180.29" waitingTime="0.00" waitingCount="0" stopTime="0.00" timeLoss="12.60" rerouteNo="0" devices="tripinfo_32 routing_32" vType="DEFAULT_VEHTYPE" speedFactor="1.01" vaporized=""/>
    <tripinfo id="10" depart="10.00" departLane="-gneE51_0" departPos="5.10" departSpeed="0.00" departDelay="0.00" arrival="64.00" arrivalLane="-gneE29_0" arrivalPos="85.60" arrivalSpeed="14.81" duration="54.00" routeLength="474.92" waitingTime="8.40" waitingCount="1" stopTime="0.00" timeLoss="21.22" rerouteNo="1" devices="tripinfo_10 routing_10" vType="DEFAULT_VEHTYPE" speedFactor="1.09" vaporized=""/>
    <tripinfo id="6" depart="6.00" departLane="gneE53_0" departPos="5.10" departSpeed="0.00" departDelay="0.00" arrival="64.80" arrivalLane="gneE6_0" arrivalPos="85.60" arrivalSpeed="8.99" duration="58.80" routeLength="671.31" waitingTime="0.00" waitingCount="0" stopTime="0.00" timeLoss="11.44" rerouteNo="1" devices="tripinfo_6 routing_6" vType="DEFAULT_VEHTYPE" speedFactor="1.05" vaporized=""/>
    <tripinfo id="7" depart="6.80" departLane="-gneE2_0" departPos="5.10" departSpeed="0.00" departDelay="-0.20" arrival="64.80" arrivalLane="gneE30_0" arrivalPos="85.60" arrivalSpeed="12.19" duration="58.00" routeLength="565.94" waitingTime="0.00" waitingCount="0" stopTime="0.00" timeLoss="9.60" rerouteNo="1" devices="tripinfo_7 routing_7" vType="DEFAULT_VEHTYPE" speedFactor="0.89" vaporized=""/>
    <tripinfo id="19" depart="18.80" departLane="gneE40_0" departPos="5.10" departSpeed="0.00" departDelay="-0.20" arrival="68.40" arrivalLane="gneE5_0" arrivalPos="85.60" arrivalSpeed="5.53" duration="49.60" routeLength="580.08" waitingTime="0.00" waitingCount="0" stopTime="0.00" timeLoss="12.20" rerouteNo="1" devices="tripinfo_19 routing_19" vType="DEFAULT_VEHTYPE" speedFactor="1.16" vaporized=""/>
    <tripinfo id="12" depart="12.00" departLane="-gneE30_0" departPos="5.10" departSpeed="0.00" departDelay="0.00" arrival="70.80" arrivalLane="-gneE14_0" arrivalPos="85.60" arrivalSpeed="14.11" duration="58.80" routeLength="574.71" waitingTime="3.60" waitingCount="1" stopTime="0.00" timeLoss="17.01" rerouteNo="1" devices="tripinfo_12 routing_12" vType="DEFAULT_VEHTYPE" speedFactor="1.05" vaporized=""/>
    <tripinfo id="46" depart="46.00" departLane="-gneE37_0" departPos="5.10" departSpeed="0.00" departDelay="0.00" arrival="79.60" arrivalLane="gneE12_0" arrivalPos="85.60" arrivalSpeed="13.85" duration="33.60" routeLength="379.13" waitingTime="0.00" waitingCount="0" stopTime="0.00" timeLoss="5.54" rerouteNo="1" devices="tripinfo_46 routing_46" vType="DEFAULT_VEHTYPE" speedFactor="1.00" vaporized=""/>
    <tripinfo id="33" depart="32.80" departLane="-gneE6_0" departPos="5.10" departSpeed="0.00" departDelay="-0.20" arrival="81.60" arrivalLane="-gneE39_0" arrivalPos="85.60" arrivalSpeed="15.85" duration="48.80" routeLength="569.55" waitingTime="0.00" waitingCount="0" stopTime="0.00" timeLoss="11.70" rerouteNo="1" devices="tripinfo_33 routing_33" vType="DEFAULT_VEHTYPE" speedFactor="1.17" vaporized=""/>
    <tripinfo id="16" depart="16.00" departLane="-gneE3_0" departPos="5.10" departSpeed="0.00" departDelay="0.00" arrival="84.40" arrivalLane="gneE44_0" arrivalPos="85.60" arrivalSpeed="12.02" duration="68.40" routeLength="564.39" waitingTime="7.20" waitingCount="1" stopTime="0.00" timeLoss="19.61" rerouteNo="1" devices="tripinfo_16 routing_16" vType="DEFAULT_VEHTYPE" speedFactor="0.88" vaporized=""/>
    <tripinfo id="11" depart="10.80" departLane="gneE33_0" departPos="5.10" departSpeed="0.00" departDelay="-0.20" arrival="86.40" arrivalLane="gneE36_0" arrivalPos="85.60" arrivalSpeed="14.09" duration="75.60" routeLength="669.55" waitingTime="4.00" waitingCount="1" stopTime="0.00" timeLoss="26.37" rerouteNo="1" devices="tripinfo_11 routing_11" vType="DEFAULT_VEHTYPE" speedFactor="1.03" vaporized=""/>
    <tripinfo id="43" depart="42.80" departLane="gneE5_0" departPos="5.10" departSpeed="0.00" departDelay="-0.20" arrival="90.40" arrivalLane="-gneE45_0" arrivalPos="85.60" arrivalSpeed="14.31" duration="47.60" routeLength="480.08" waitingTime="3.20" waitingCount="1" stopTime="0.00" timeLoss="12.91" rerouteNo="1" devices="tripinfo_43 routing_43" vType="DEFAULT_VEHTYPE" speedFactor="1.04" vaporized=""/>
    <tripinfo id="63" depart="66.80" departLane="-gneE37_0" departPos="5.10" departSpeed="0.00" departDelay="3.80" arrival="92.80" arrivalLane="-gneE5_0" arrivalPos="85.60" arrivalSpeed="13.70" duration="26.00" routeLength="279.13" waitingTime="0.00" waitingCount="0" stopTime="0.00" timeLoss="4.81" rerouteNo="1" devices="tripinfo_63 routing_63" vType="DEFAULT_VEHTYPE" speedFactor="0.99" vaporized=""/>
    <tripinfo id="4" depart="4.00" departLane="gneE28_0" departPos="5.10" departSpeed="0.00" departDelay="0.00" arrival="93.20" arrivalLane="-gneE51_0" arrivalPos="85.60" arrivalSpeed="5.88" duration="89.20" routeLength="675.31" waitingTime="25.20" waitingCount="1" stopTime="0.00" timeLoss="41.06" rerouteNo="1" devices="tripinfo_4 routing_4" vType="DEFAULT_VEHTYPE" speedFactor="1.03" vaporized=""/>
    <tripinfo id="0" depart="0.00" departLane="gneE5_0" departPos="5.10" departSpeed="0.00" departDelay="0.00" arrival="93.60" arrivalLane="gneE35_0" arrivalPos="85.60" arrivalSpeed="5.45" duration="93.60" routeLength="564.39" waitingTime="31.60" waitingCount="2" stopTime="0.00" timeLoss="53.29" rerouteNo="1" devices="tripinfo_0 routing_0" vType="DEFAULT_VEHTYPE" speedFactor="1.06" vaporized=""/>
    <tripinfo id="18" depart="19.60" departLane="gneE37_0" departPos="5.10" departSpeed="0.00" departDelay="1.60" arrival="99.60" arrivalLane="-gneE33_0" arrivalPos="85.60" arrivalSpeed="12.66" duration="80.00" routeLength="882.97" waitingTime="0.00" waitingCount="0" stopTime="0.00" timeLoss="9.65" rerouteNo="1" devices="tripinfo_18 routing_18" vType="DEFAULT_VEHTYPE" speedFactor="0.94" vaporized=""/>
    <tripinfo id="28" depart="28.00" departLane="gneE48_0" departPos="5.10" departSpeed="0.00" departDelay="0.00" arrival="101.20" arrivalLane="-gneE35_0" arrivalPos="85.60" arrivalSpeed="15.48" duration="73.20" routeLength="480.08" waitingTime="24.80" waitingCount="1" stopTime="0.00" timeLoss="41.20" rerouteNo="1" devices="tripinfo_28 routing_28" vType="DEFAULT_VEHTYPE" speedFactor="1.13" vaporized=""/>
    <tripinfo id="29" depart="28.80" departLane="-gneE51_0" departPos="5.10" departSpeed="0.00" departDelay="-0.20" arrival="101.60" arrivalLane="-gneE3_0" arrivalPos="85.60" arrivalSpeed="11.66" duration="72.80" routeLength="280.50" waitingTime="42.00" waitingCount="1" stopTime="0.00" timeLoss="50.86" rerouteNo="1" devices="tripinfo_29 routing_29" vType="DEFAULT_VEHTYPE" speedFactor="0.93" vaporized=""/>
    <tripinfo id="45" depart="44.80" departLane="gneE34_0" departPos="5.10" departSpeed="0.00" departDelay="-0.20" arrival="110.40" arrivalLane="-gneE30_0" arrivalPos="85.60" arrivalSpeed="14.66" duration="65.60" routeLength="280.29" waitingTime="32.40" waitingCount="1" stopTime="0.00" timeLoss="46.46" rerouteNo="1" devices="tripinfo_45 routing_45" vType="DEFAULT_VEHTYPE" speedFactor="1.09" vaporized=""/>
    <tripinfo id="47" depart="50.40" departLane="-gneE36_0" departPos="5.10" departSpeed="0.00" departDelay="3.40" arrival="114.00" arrivalLane="gneE47_0" arrivalPos="85.60" arrivalSpeed="12.19" duration="63.60" routeLength="364.39" waitingTime="10.00" waitingCount="2" stopTime="0.00" timeLoss="31.97" rerouteNo="1" devices="tripinfo_47 routing_47" vType="DEFAULT_VEHTYPE" speedFactor="0.90" vaporized=""/>
    <tripinfo id="15" depart="14.80" departLane="-gneE12_0" departPos="5.10" departSpeed="0.00" departDelay="-0.20" arrival="118.40" arrivalLane="gneE3_0" arrivalPos="85.60" arrivalSpeed="12.62" duration="103.60" routeLength="565.94" waitingTime="40.40" waitingCount="2" stopTime="0.00" timeLoss="57.49" rerouteNo="1" devices="tripinfo_15 routing_15" vType="DEFAULT_VEHTYPE" speedFactor="0.93" vaporized=""/>
    <tripinfo id="52" depart="52.40" departLane="gneE48_0" departPos="5.10" departSpeed="0.00" departDelay="0.40" arrival="118.80" arrivalLane="-gneE36_0" arrivalPos="85.60" arrivalSpeed="13.64" duration="66.40" routeLength="269.76" waitingTime="29.60" waitingCount="2" stopTime="0.00" timeLoss="45.63" rerouteNo="1" devices="tripinfo_52 routing_52" vType="DEFAULT_VEHTYPE" speedFactor="1.02" vaporized=""/>
    <tripinfo id="84" depart="84.00" departLane="gneE1_0" departPos="5.10" departSpeed="0.00" departDelay="0.00" arrival="122.00" arrivalLane="gneE29_0" arrivalPos="85.60" arrivalSpeed="15.91" duration="38.00" routeLength="476.68" waitingTime="0.00" waitingCount="0" stopTime="0.00" timeLoss="7.75" rerouteNo="1" devices="tripinfo_84 routing_84" vType="DEFAULT_VEHTYPE" speedFactor="1.15" vaporized=""/>
    <tripinfo id="64" depart="64.00" departLane="gneE40_0" departPos="5.10" departSpeed="0.00" departDelay="0.00" arrival="122.40" arrivalLane="-gneE30_0" arrivalPos="85.60" arrivalSpeed="12.85" duration="58.40" routeLength="374.92" waitingTime="8.40" waitingCount="2" stopTime="0.00" timeLoss="27.83" rerouteNo="1" devices="tripinfo_64 routing_64" vType="DEFAULT_VEHTYPE" speedFactor="0.94" vaporized=""/>
    <tripinfo id="37" depart="36.80" departLane="gneE44_0" departPos="5.10" departSpeed="0.00" departDelay="-0.20" arrival="123.20" arrivalLane="gneE2_0" arrivalPos="85.60" arrivalSpeed="16.14" duration="86.40" routeLength="574.71" waitingTime="34.00" waitingCount="1" stopTime="0.00" timeLoss="49.37" rerouteNo="1" devices="tripinfo_37 routing_37" vType="DEFAULT_VEHTYPE" speedFactor="1.18" vaporized=""/>
    <tripinfo id="72" depart="72.00" departLane="-gneE1_0" departPos="5.10" departSpeed="0.00" departDelay="0.00" arrival="128.00" arrivalLane="-gneE9_0" arrivalPos="89.60" arrivalSpeed="12.61" duration="56.00" routeLength="281.84" waitingTime="8.80" waitingCount="1" stopTime="0.00" timeLoss="33.58" rerouteNo="1" devices="tripinfo_72 routing_72" vType="DEFAULT_VEHTYPE" speedFactor="0.94" vaporized=""/>
    <tripinfo id="70" depart="70.00" departLane="-gneE51_0" departPos="5.10" departSpeed="0.00" departDelay="0.00" arrival="130.00" arrivalLane="-gneE1_0" arrivalPos="85.60" arrivalSpeed="10.77" duration="60.00" routeLength="480.29" waitingTime="8.00" waitingCount="1" stopTime="0.00" timeLoss="25.23" rerouteNo="1" devices="tripinfo_70 routing_70" vType="DEFAULT_VEHTYPE" speedFactor="1.02" vaporized=""/>
    <tripinfo id="122" depart="122.00" departLane="gneE2_0" departPos="5.10" departSpeed="0.00" departDelay="0.00" arrival="131.20" arrivalLane="gneE2_0" arrivalPos="85.60" arrivalSpeed="14.11" duration="9.20" routeLength="80.50" waitingTime="0.00" waitingCount="0" stopTime="0.00" timeLoss="3.20" rerouteNo="1" devices="tripinfo_122 routing_122" vType="DEFAULT_VEHTYPE" speedFactor="1.03" vaporized=""/>
    <tripinfo id="58" depart="58.40" departLane="gneE5_0" departPos="5.10" departSpeed="0.00" departDelay="0.40" arrival="132.80" arrivalLane="gneE42_0" arrivalPos="89.60" arrivalSpeed="13.83" duration="74.40" routeLength="782.97" waitingTime="2.40" waitingCount="1" stopTime="0.00" timeLoss="17.25" rerouteNo="1" devices="tripinfo_58 routing_58" vType="DEFAULT_VEHTYPE" speedFactor="1.02" vaporized=""/>
    <tripinfo id="97" depart="96.80" departLane="gneE1_0" departPos="5.10" departSpeed="0.00" departDelay="-0.20" arrival="133.20" arrivalLane="gneE50_0" arrivalPos="85.60" arrivalSpeed="12.16" duration="36.40" routeLength="375.13" waitingTime="0.00" waitingCount="0" stopTime="0.00" timeLoss="5.42" rerouteNo="1" devices="tripinfo_97 routing_97" vType="DEFAULT_VEHTYPE" speedFactor="0.91" vaporized=""/>
    <tripinfo id="56" depart="56.00" departLane="-gneE5_0" departPos="5.10" departSpeed="0.00" departDelay="0.00" arrival="133.60" arrivalLane="-gneE37_0" arrivalPos="89.60" arrivalSpeed="12.46" duration="77.60" routeLength="465.94" waitingTime="13.60" waitingCount="2" stopTime="0.00" timeLoss="37.77" rerouteNo="1" devices="tripinfo_56 routing_56" vType="DEFAULT_VEHTYPE" speedFactor="0.90" vaporized=""/>
    <tripinfo id="35" depart="34.80" departLane="-gneE34_0" departPos="5.10" departSpeed="0.00" departDelay="-0.20" arrival="136.40" arrivalLane="gneE48_0" arrivalPos="85.60" arrivalSpeed="13.95" duration="101.60" routeLength="580.08" waitingTime="33.20" waitingCount="4" stopTime="0.00" timeLoss="59.28" rerouteNo="1" devices="tripinfo_35 routing_35" vType="DEFAULT_VEHTYPE" speedFactor="1.02" vaporized=""/>
    <tripinfo id="62" depart="62.00" departLane="-gneE2_0" departPos="5.10" departSpeed="0.00" departDelay="0.00" arrival="137.60" arrivalLane="-gneE6_0" arrivalPos="85.60" arrivalSpeed="14.07" duration="75.60" routeLength="481.63" waitingTime="7.60" waitingCount="1" stopTime="0.00" timeLoss="39.62" rerouteNo="1" devices="tripinfo_62 routing_62" vType="DEFAULT_VEHTYPE" speedFactor="1.02" vaporized=""/>
    <tripinfo id="20" depart="20.00" departLane="-gneE9_0" departPos="5.10" departSpeed="0.00" departDelay="0.00" arrival="138.00" arrivalLane="-gneE32_0" arrivalPos="85.60" arrivalSpeed="5.83" duration="118.00" routeLength="667.97" waitingTime="34.80" waitingCount="3" stopTime="0.00" timeLoss="67.16" rerouteNo="1" devices="tripinfo_20 routing_20" vType="DEFAULT_VEHTYPE" speedFactor="1.02" vaporized=""/>
    <tripinfo id="42" depart="42.00" departLane="-gneE27_0" departPos="5.10" departSpeed="0.00" departDelay="0.00" arrival="138.80" arrivalLane="-gneE12_0" arrivalPos="85.60" arrivalSpeed="5.17" duration="96.80" routeLength="478.92" waitingTime="31.20" waitingCount="3" stopTime="0.00" timeLoss="63.97" rerouteNo="1" devices="tripinfo_42 routing_42" vType="DEFAULT_VEHTYPE" speedFactor="1.09" vaporized=""/>
    <tripinfo id="71" depart="70.80" departLane="-gneE34_0" departPos="5.10" departSpeed="0.00" departDelay="-0.20" arrival="140.00" arrivalLane="gneE13_0" arrivalPos="85.60" arrivalSpeed="8.20" duration="69.20" routeLength="374.71" waitingTime="20.80" waitingCount="2" stopTime="0.00" timeLoss="39.38" rerouteNo="1" devices="tripinfo_71 routing_71" vType="DEFAULT_VEHTYPE" speedFactor="0.97" vaporized=""/>
    <tripinfo id="30" depart="30.00" departLane="gneE28_0" departPos="5.10" departSpeed="0.00" departDelay="0.00" arrival="140.40" arrivalLane="-gneE13_0" arrivalPos="85.60" arrivalSpeed="7.06" duration="110.40" routeLength="668.39" waitingTime="40.80" waitingCount="2" stopTime="0.00" timeLoss="67.63" rerouteNo="1" devices="tripinfo_30 routing_30" vType="DEFAULT_VEHTYPE" speedFactor="1.18" vaporized=""/>
    <tripinfo id="54" depart="54.00" departLane="-gneE41_0" departPos="5.10" departSpeed="0.00" departDelay="0.00" arrival="142.40" arrivalLane="gneE31_0" arrivalPos="85.60" arrivalSpeed="8.44" duration="88.40" routeLength="378.92" waitingTime="30.00" waitingCount="3" stopTime="0.00" timeLoss="59.55" rerouteNo="1" devices="tripinfo_54 routing_54" vType="DEFAULT_VEHTYPE" speedFactor="1.00" vaporized=""/>
    <tripinfo id="100" depart="100.80" departLane="-gneE44_0" departPos="5.10" departSpeed="0.00" departDelay="0.80" arrival="142.80" arrivalLane="-gneE39_0" arrivalPos="85.60" arrivalSpeed="14.77" duration="42.00" routeLength="471.31" waitingTime="0.00" waitingCount="0" stopTime="0.00" timeLoss="9.04" rerouteNo="1" devices="tripinfo_100 routing_100" vType="DEFAULT_VEHTYPE" speedFactor="1.07" vaporized=""/>
    <tripinfo id="44" depart="44.00" departLane="gneE49_0" departPos="5.10" departSpeed="0.00" departDelay="0.00" arrival="144.40" arrivalLane="gneE51_0" arrivalPos="85.60" arrivalSpeed="14.09" duration="100.40" routeLength="560.57" waitingTime="44.00" waitingCount="1" stopTime="0.00" timeLoss="59.08" rerouteNo="1" devices="tripinfo_44 routing_44" vType="DEFAULT_VEHTYPE" speedFactor="1.04" vaporized=""/>
    <tripinfo id="2" depart="2.00" departLane="-gneE5_0" departPos="5.10" departSpeed="0.00" departDelay="0.00" arrival="145.60" arrivalLane="-gneE0_0" arrivalPos="89.60" arrivalSpeed="13.52" duration="143.60" routeLength="384.08" waitingTime="91.60" waitingCount="3" stopTime="0.00" timeLoss="114.48" rerouteNo="1" devices="tripinfo_2 routing_2" vType="DEFAULT_VEHTYPE" speedFactor="1.01" vaporized=""/>
    <tripinfo id="73" depart="72.80" departLane="gneE0_0" departPos="5.10" departSpeed="0.00" departDelay="-0.20" arrival="146.00" arrivalLane="-gneE6_0" arrivalPos="85.60" arrivalSpeed="14.45" duration="73.20" routeLength="373.55" waitingTime="27.20" waitingCount="3" stopTime="0.00" timeLoss="45.49" rerouteNo="1" devices="tripinfo_73 routing_73" vType="DEFAULT_VEHTYPE" speedFactor="1.06" vaporized=""/>
    <tripinfo id="22" depart="22.00" departLane="-gneE3_0" departPos="5.10" departSpeed="0.00" departDelay="0.00" arrival="146.40" arrivalLane="-gneE4_0" arrivalPos="85.60" arrivalSpeed="9.21" duration="124.40" routeLength="379.87" waitingTime="58.80" waitingCount="5" stopTime="0.00" timeLoss="93.89" rerouteNo="1" devices="tripinfo_22 routing_22" vType="DEFAULT_VEHTYPE" speedFactor="0.98" vaporized=""/>
    <tripinfo id="17" depart="16.80" departLane="gneE37_0" departPos="5.10" departSpeed="0.00" departDelay="-0.20" arrival="147.20" arrivalLane="gneE51_0" arrivalPos="85.60" arrivalSpeed="12.68" duration="130.40" routeLength="470.89" waitingTime="66.80" waitingCount="2" stopTime="0.00" timeLoss="91.42" rerouteNo="1" devices="tripinfo_17 routing_17" vType="DEFAULT_VEHTYPE" speedFactor="0.94" vaporized=""/>
    <tripinfo id="105" depart="104.80" departLane="gneE34_0" departPos="5.10" departSpeed="0.00" departDelay="-0.20" arrival="147.60" arrivalLane="gneE44_0" arrivalPos="85.60" arrivalSpeed="14.80" duration="42.80" routeLength="469.55" waitingTime="0.00" waitingCount="0" stopTime="0.00" timeLoss="9.28" rerouteNo="1" devices="tripinfo_105 routing_105" vType="DEFAULT_VEHTYPE" speedFactor="1.07" vaporized=""/>
    <tripinfo id="92" depart="92.00" departLane="gneE42_0" departPos="5.10" departSpeed="0.00" departDelay="0.00" arrival="148.40" arrivalLane="gneE31_0" arrivalPos="85.60" arrivalSpeed="11.51" duration="56.40" routeLength="384.29" waitingTime="10.00" waitingCount="1" stopTime="0.00" timeLoss="22.07" rerouteNo="1" devices="tripinfo_92 routing_92" vType="DEFAULT_VEHTYPE" speedFactor="0.83" vaporized=""/>
    <tripinfo id="9" depart="8.80" departLane="gneE34_0" departPos="5.10" departSpeed="0.00" departDelay="-0.20" arrival="148.80" arrivalLane="-gneE31_0" arrivalPos="85.60" arrivalSpeed="9.02" duration="140.00" routeLength="374.71" waitingTime="68.00" waitingCount="5" stopTime="0.00" timeLoss="105.74" rerouteNo="1" devices="tripinfo_9 routing_9" vType="DEFAULT_VEHTYPE" speedFactor="0.86" vaporized=""/>
    <tripinfo id="123" depart="123.60" departLane="gneE5_0" departPos="5.10" departSpeed="0.00" departDelay="0.60" arrival="150.80" arrivalLane="-gneE47_0" arrivalPos="85.60" arrivalSpeed="14.17" duration="27.20" routeLength="280.08" waitingTime="0.00" waitingCount="0" stopTime="0.00" timeLoss="6.14" rerouteNo="1" devices="tripinfo_123 routing_123" vType="DEFAULT_VEHTYPE" speedFactor="1.02" vaporized=""/>
    <tripinfo id="111" depart="110.80" departLane="gneE27_0" departPos="5.10" departSpeed="0.00" departDelay="-0.20" arrival="152.00" arrivalLane="-gneE34_0" arrivalPos="85.60" arrivalSpeed="11.51" duration="41.20" routeLength="365.94" waitingTime="0.00" waitingCount="0" stopTime="0.00" timeLoss="8.51" rerouteNo="1" devices="tripinfo_111 routing_111" vType="DEFAULT_VEHTYPE" speedFactor="0.87" vaporized=""/>
    <tripinfo id="61" depart="61.60" departLane="gneE4_0" departPos="5.10" departSpeed="0.00" departDelay="0.60" arrival="152.80" arrivalLane="gneE26_0" arrivalPos="85.60" arrivalSpeed="15.30" duration="91.20" routeLength="469.76" waitingTime="34.80" waitingCount="2" stopTime="0.00" timeLoss="59.52" rerouteNo="1" devices="tripinfo_61 routing_61" vType="DEFAULT_VEHTYPE" speedFactor="1.12" vaporized=""/>
    <tripinfo id="82" depart="82.00" departLane="gneE9_0" departPos="5.10" departSpeed="0.00" departDelay="0.00" arrival="154.80" arrivalLane="-gneE43_0" arrivalPos="85.60" arrivalSpeed="13.91" duration="72.80" routeLength="772.86" waitingTime="0.00" waitingCount="0" stopTime="0.00" timeLoss="17.35" rerouteNo="1" devices="tripinfo_82 routing_82" vType="DEFAULT_VEHTYPE" speedFactor="1.02" vaporized=""/>
    <tripinfo id="38" depart="38.00" departLane="-gneE5_0" departPos="5.10" departSpeed="0.00" departDelay="0.00" arrival="155.20" arrivalLane="-gneE44_0" arrivalPos="85.60" arrivalSpeed="15.06" duration="117.20" routeLength="474.92" waitingTime="59.60" waitingCount="3" stopTime="0.00" timeLoss="84.72" rerouteNo="1" devices="tripinfo_38 routing_38" vType="DEFAULT_VEHTYPE" speedFactor="1.10" vaporized=""/>
    <tripinfo id="117" depart="116.80" departLane="gneE27_0" departPos="5.10" departSpeed="0.00" departDelay="-0.20" arrival="155.20" arrivalLane="-gneE34_0" arrivalPos="85.60" arrivalSpeed="13.66" duration="38.40" routeLength="365.94" waitingTime="0.00" waitingCount="0" stopTime="0.00" timeLoss="10.12" rerouteNo="1" devices="tripinfo_117 routing_117" vType="DEFAULT_VEHTYPE" speedFactor="1.00" vaporized=""/>
    <tripinfo id="41" depart="40.80" departLane="gneE2_0" departPos="5.10" departSpeed="0.00" departDelay="-0.20" arrival="156.40" arrivalLane="-gneE36_0" arrivalPos="85.60" arrivalSpeed="13.15" duration="115.60" routeLength="569.76" waitingTime="38.00" waitingCount="2" stopTime="0.00" timeLoss="71.35" rerouteNo="1" devices="tripinfo_41 routing_41" vType="DEFAULT_VEHTYPE" speedFactor="0.96" vaporized=""/>
    <tripinfo id="1" depart="0.80" departLane="-gneE4_0" departPos="5.10" departSpeed="0.00" departDelay="-0.20" arrival="156.80" arrivalLane="gneE9_0" arrivalPos="89.60" arrivalSpeed="12.84" duration="156.00" routeLength="478.71" waitingTime="94.40" waitingCount="4" stopTime="0.00" timeLoss="117.04" rerouteNo="1" devices="tripinfo_1 routing_1" vType="DEFAULT_VEHTYPE" speedFactor="0.94" vaporized=""/>
    <tripinfo id="67" depart="66.80" departLane="gneE13_0" departPos="5.10" departSpeed="0.00" departDelay="-0.20" arrival="157.60" arrivalLane="gneE50_0" arrivalPos="85.60" arrivalSpeed="12.49" duration="90.80" routeLength="374.71" waitingTime="26.80" waitingCount="3" stopTime="0.00" timeLoss="58.75" rerouteNo="1" devices="tripinfo_67 routing_67" vType="DEFAULT_VEHTYPE" speedFactor="0.91" vaporized=""/>
    <tripinfo id="13" depart="12.80" departLane="gneE52_0" departPos="5.10" departSpeed="0.00" departDelay="-0.20" arrival="158.40" arrivalLane="-gneE43_0" arrivalPos="85.60" arrivalSpeed="15.43" duration="145.60" routeLength="559.02" waitingTime="78.40" waitingCount="4" stopTime="0.00" timeLoss="107.13" rerouteNo="1" devices="tripinfo_13 routing_13" vType="DEFAULT_VEHTYPE" speedFactor="1.12" vaporized=""/>
    <tripinfo id="49" depart="49.20" departLane="-gneE50_0" departPos="5.10" departSpeed="0.00" departDelay="0.20" arrival="158.40" arrivalLane="gneE36_0" arrivalPos="85.60" arrivalSpeed="11.46" duration="109.20" routeLength="380.08" waitingTime="54.40" waitingCount="2" stopTime="0.00" timeLoss="74.99" rerouteNo="1" devices="tripinfo_49 routing_49" vType="DEFAULT_VEHTYPE" speedFactor="0.85" vaporized=""/>
    <tripinfo id="55" depart="54.80" departLane="gneE47_0" departPos="5.10" departSpeed="0.00" departDelay="-0.20" arrival="163.20" arrivalLane="gneE32_0" arrivalPos="85.60" arrivalSpeed="8.40" duration="108.40" routeLength="569.76" waitingTime="43.20" waitingCount="1" stopTime="0.00" timeLoss="65.94" rerouteNo="1" devices="tripinfo_55 routing_55" vType="DEFAULT_VEHTYPE" speedFactor="1.00" vaporized=""/>
    <tripinfo id="24" depart="24.00" departLane="-gneE26_0" departPos="5.10" departSpeed="0.00" departDelay="0.00" arrival="163.60" arrivalLane="-gneE34_0" arrivalPos="85.60" arrivalSpeed="11.31" duration="139.60" routeLength="379.87" waitingTime="86.40" waitingCount="3" stopTime="0.00" timeLoss="103.85" rerouteNo="1" devices="tripinfo_24 routing_24" vType="DEFAULT_VEHTYPE" speedFactor="0.83" vaporized=""/>
    <tripinfo id="60" depart="60.00" departLane="gneE32_0" departPos="5.10" departSpeed="0.00" departDelay="0.00" arrival="166.00" arrivalLane="gneE46_0" arrivalPos="85.60" arrivalSpeed="11.01" duration="106.00" routeLength="469.76" waitingTime="38.00" waitingCount="3" stopTime="0.00" timeLoss="73.52" rerouteNo="1" devices="tripinfo_60 routing_60" vType="DEFAULT_VEHTYPE" speedFactor="1.08" vaporized=""/>
    <tripinfo id="101" depart="104.40" departLane="gneE2_0" departPos="5.10" departSpeed="0.00" departDelay="3.40" arrival="166.40" arrivalLane="-gneE34_0" arrivalPos="85.60" arrivalSpeed="12.90" duration="62.00" routeLength="280.08" waitingTime="20.00" waitingCount="2" stopTime="0.00" timeLoss="39.49" rerouteNo="1" devices="tripinfo_101 routing_101" vType="DEFAULT_VEHTYPE" speedFactor="0.96" vaporized=""/>
    <tripinfo id="27" depart="26.80" departLane="gneE31_0" departPos="5.10" departSpeed="0.00" departDelay="-0.20" arrival="167.20" arrivalLane="-gneE41_0" arrivalPos="89.60" arrivalSpeed="12.88" duration="140.40" routeLength="570.89" waitingTime="68.40" waitingCount="4" stopTime="0.00" timeLoss="94.36" rerouteNo="1" devices="tripinfo_27 routing_27" vType="DEFAULT_VEHTYPE" speedFactor="0.95" vaporized=""/>
    <tripinfo id="25" depart="24.80" departLane="-gneE38_0" departPos="5.10" departSpeed="0.00" departDelay="-0.20" arrival="167.60" arrivalLane="-gneE27_0" arrivalPos="89.60" arrivalSpeed="12.01" duration="142.80" routeLength="972.44" waitingTime="43.60" waitingCount="1" stopTime="0.00" timeLoss="59.97" rerouteNo="1" devices="tripinfo_25 routing_25" vType="DEFAULT_VEHTYPE" speedFactor="0.87" vaporized=""/>
    <tripinfo id="160" depart="160.00" departLane="gneE40_0" departPos="5.10" departSpeed="0.00" departDelay="0.00" arrival="169.60" arrivalLane="gneE40_0" arrivalPos="85.60" arrivalSpeed="11.95" duration="9.60" routeLength="80.50" waitingTime="0.00" waitingCount="0" stopTime="0.00" timeLoss="2.75" rerouteNo="1" devices="tripinfo_160 routing_160" vType="DEFAULT_VEHTYPE" speedFactor="0.88" vaporized=""/>
    <tripinfo id="21" depart="20.80" departLane="-gneE42_0" departPos="5.10" departSpeed="0.00" departDelay="-0.20" arrival="170.80" arrivalLane="gneE42_0" arrivalPos="89.60" arrivalSpeed="13.97" duration="150.00" routeLength="761.70" waitingTime="68.00" waitingCount="4" stopTime="0.00" timeLoss="91.47" rerouteNo="1" devices="tripinfo_21 routing_21" vType="DEFAULT_VEHTYPE" speedFactor="1.01" vaporized=""/>
    <tripinfo id="68" depart="73.60" departLane="gneE15_0" departPos="5.10" departSpeed="0.00" departDelay="5.60" arrival="172.80" arrivalLane="gneE28_0" arrivalPos="89.60" arrivalSpeed="14.21" duration="99.20" routeLength="571.31" waitingTime="30.80" waitingCount="2" stopTime="0.00" timeLoss="58.39" rerouteNo="1" devices="tripinfo_68 routing_68" vType="DEFAULT_VEHTYPE" speedFactor="1.04" vaporized=""/>
    <tripinfo id="93" depart="92.80" departLane="gneE30_0" departPos="5.10" departSpeed="0.00" departDelay="-0.20" arrival="172.80" arrivalLane="gneE36_0" arrivalPos="85.60" arrivalSpeed="12.31" duration="80.00" routeLength="480.29" waitingTime="30.80" waitingCount="1" stopTime="0.00" timeLoss="41.40" rerouteNo="1" devices="tripinfo_93 routing_93" vType="DEFAULT_VEHTYPE" speedFactor="0.92" vaporized=""/>
    <tripinfo id="75" depart="76.80" departLane="gneE34_0" departPos="5.10" departSpeed="0.00" departDelay="1.80" arrival="173.60" arrivalLane="-gneE14_0" arrivalPos="85.60" arrivalSpeed="13.54" duration="96.80" routeLength="369.76" waitingTime="39.20" waitingCount="3" stopTime="0.00" timeLoss="67.80" rerouteNo="1" devices="tripinfo_75 routing_75" vType="DEFAULT_VEHTYPE" speedFactor="0.98" vaporized=""/>
    <tripinfo id="98" depart="98.00" departLane="-gneE37_0" departPos="5.10" departSpeed="0.00" departDelay="0.00" arrival="174.40" arrivalLane="gneE41_0" arrivalPos="89.60" arrivalSpeed="15.24" duration="76.40" routeLength="577.55" waitingTime="14.80" waitingCount="1" stopTime="0.00" timeLoss="37.44" rerouteNo="1" devices="tripinfo_98 routing_98" vType="DEFAULT_VEHTYPE" speedFactor="1.12" vaporized=""/>
    <tripinfo id="110" depart="110.00" departLane="gneE5_0" departPos="5.10" departSpeed="0.00" departDelay="0.00" arrival="178.80" arrivalLane="-gneE40_0" arrivalPos="85.60" arrivalSpeed="12.62" duration="68.80" routeLength="669.34" waitingTime="0.00" waitingCount="0" stopTime="0.00" timeLoss="13.64" rerouteNo="1" devices="tripinfo_110 routing_110" vType="DEFAULT_VEHTYPE" speedFactor="0.93" vaporized=""/>