<?xml version="1.0" encoding="UTF-8"?>

<!-- generated on Mon 31 May 2021 01:57:36 IST by Eclipse SUMO GUI Version 1.4.0
<configuration xmlns:xsi="http://www.w3.org/2001/XMLSchema-instance" xsi:noNamespaceSchemaLocation="http://sumo.dlr.de/xsd/sumoConfiguration.xsd">

    <input>
        <net-file value="new_demo.net.xml"/>
        <route-files value="trips.trips.xml"/>
    </input>

    <output>
        <tripinfo-output value="tripinfo.xml"/>
    </output>

    <time>
        <begin value="0"/>
        <end value="530"/>
        <step-length value="0.4"/>
    </time>

    <traci_server>
        <remote-port value="35189"/>
    </traci_server>

    <gui_only>
        <tracker-interval value="0.4"/>
    </gui_only>

</configuration>
-->

<tripinfos xmlns:xsi="http://www.w3.org/2001/XMLSchema-instance" xsi:noNamespaceSchemaLocation="http://sumo.dlr.de/xsd/tripinfo_file.xsd">
    <tripinfo id="5" depart="4.80" departLane="-gneE49_0" departPos="6.60" departSpeed="0.00" departDelay="-0.20" arrival="21.20" arrivalLane="-gneE48_0" arrivalPos="85.60" arrivalSpeed="13.52" duration="16.40" routeLength="179.00" waitingTime="0.00" waitingCount="0" stopTime="0.00" timeLoss="3.49" rerouteNo="0" devices="tripinfo_5 routing_5" vType="bus" speedFactor="1.00" vaporized=""/>
    <tripinfo id="8" depart="8.00" departLane="-gneE26_0" departPos="6.60" departSpeed="0.00" departDelay="0.00" arrival="26.40" arrivalLane="gneE2_0" arrivalPos="85.60" arrivalSpeed="13.44" duration="18.40" routeLength="178.79" waitingTime="0.00" waitingCount="0" stopTime="0.00" timeLoss="4.60" rerouteNo="0" devices="tripinfo_8 routing_8" vType="bus" speedFactor="1.00" vaporized=""/>
    <tripinfo id="13" depart="12.80" departLane="gneE14_0" departPos="6.60" departSpeed="0.00" departDelay="-0.20" arrival="50.80" arrivalLane="-gneE46_0" arrivalPos="85.60" arrivalSpeed="7.88" duration="38.00" routeLength="378.79" waitingTime="0.00" waitingCount="0" stopTime="0.00" timeLoss="9.87" rerouteNo="1" devices="tripinfo_13 routing_13" vType="bus" speedFactor="1.00" vaporized=""/>
    <tripinfo id="7" depart="6.80" departLane="-gneE50_0" departPos="6.60" departSpeed="0.00" departDelay="-0.20" arrival="54.80" arrivalLane="-gneE14_0" arrivalPos="85.60" arrivalSpeed="13.48" duration="48.00" routeLength="373.42" waitingTime="10.00" waitingCount="1" stopTime="0.00" timeLoss="19.37" rerouteNo="1" devices="tripinfo_7 routing_7" vType="bus" speedFactor="1.00" vaporized=""/>
    <tripinfo id="3" depart="2.80" departLane="gneE3_0" departPos="6.60" departSpeed="0.00" departDelay="-0.20" arrival="55.20" arrivalLane="gneE5_0" arrivalPos="85.60" arrivalSpeed="13.50" duration="52.40" routeLength="273.63" waitingTime="21.60" waitingCount="1" stopTime="0.00" timeLoss="31.73" rerouteNo="1" devices="tripinfo_3 routing_3" vType="bus" speedFactor="1.00" vaporized=""/>
    <tripinfo id="53" depart="52.80" departLane="gneE41_0" departPos="6.60" departSpeed="0.00" departDelay="-0.20" arrival="62.40" arrivalLane="gneE41_0" arrivalPos="89.60" arrivalSpeed="13.57" duration="9.60" routeLength="83.00" waitingTime="0.00" waitingCount="0" stopTime="0.00" timeLoss="3.45" rerouteNo="1" devices="tripinfo_53 routing_53" vType="bus" speedFactor="1.00" vaporized=""/>
    <tripinfo id="29" depart="28.80" departLane="gneE2_0" departPos="6.60" departSpeed="0.00" departDelay="-0.20" arrival="65.60" arrivalLane="-gneE6_0" arrivalPos="85.60" arrivalSpeed="13.42" duration="36.80" routeLength="373.42" waitingTime="0.00" waitingCount="0" stopTime="0.00" timeLoss="8.28" rerouteNo="1" devices="tripinfo_29 routing_29" vType="bus" speedFactor="1.00" vaporized=""/>
</tripinfos>
